data_global
_chemical_name_mineral 'Pyrite'
loop_
_publ_author_name
'Bayliss P'
_journal_name_full 'American Mineralogist'
_journal_volume 62 
_journal_year 1977
_journal_page_first 1168
_journal_page_last 1172
_publ_section_title
;
 Crystal structure refinement of a weakly anisotropic pyrite
 cubic model
;
_database_code_amcsd 0000605
_chemical_formula_sum 'Fe S2'
_chemical_formula_sum ''
_cell_length_a 5.4166
_cell_length_b 5.4166
_cell_length_c 5.4166
_cell_angle_alpha 90
_cell_angle_beta 90
_cell_angle_gamma 90
_cell_volume 158.921
_exptl_crystal_density_diffrn      5.015
_symmetry_space_group_name_H-M 'P a 3'
loop_
_space_group_symop_operation_xyz
  'x,y,z'
  '1/2+z,x,1/2-y'
  'z,1/2-x,1/2+y'
  '1/2-z,1/2+x,y'
  '-z,-x,-y'
  '1/2+y,1/2-z,-x'
  '1/2-y,-z,1/2+x'
  '-y,1/2+z,1/2-x'
  'y,z,x'
  'x,1/2-y,1/2+z'
  '1/2-x,1/2+y,z'
  '1/2+x,y,1/2-z'
  '-x,-y,-z'
  '1/2-z,-x,1/2+y'
  '-z,1/2+x,1/2-y'
  '1/2+z,1/2-x,-y'
  'z,x,y'
  '1/2-y,1/2+z,x'
  '1/2+y,z,1/2-x'
  'y,1/2-z,1/2+x'
  '-y,-z,-x'
  '-x,1/2+y,1/2-z'
  '1/2+x,1/2-y,-z'
  '1/2-x,-y,1/2+z'
loop_
_atom_site_label
_atom_site_fract_x
_atom_site_fract_y
_atom_site_fract_z
_atom_site_U_iso_or_equiv
Fe   0.00000   0.00000   0.00000   0.00355
S   0.38510   0.38510   0.38510   0.00418

