data_global
_chemical_name_mineral 'Forsterite'
loop_
_publ_author_name
'Bostrom D'
_journal_name_full 'American Mineralogist'
_journal_volume 72 
_journal_year 1987
_journal_page_first 965
_journal_page_last 972
_publ_section_title
;
 Single-crystal X-ray diffraction studies of synthetic Ni-Mg olivine solid
 solutions
 Sample: XNi2+ = .30
;
_database_code_amcsd 0001119
_chemical_formula_sum '(Mg1.4 Ni.6) Si O4'
_cell_length_a 4.7447
_cell_length_b 10.1993
_cell_length_c 5.9567
_cell_angle_alpha 90
_cell_angle_beta 90
_cell_angle_gamma 90
_cell_volume 288.260
_exptl_crystal_density_diffrn      3.717
_symmetry_space_group_name_H-M 'P b n m'
loop_
_space_group_symop_operation_xyz
  'x,y,z'
  'x,y,1/2-z'
  '-x,-y,1/2+z'
  '1/2+x,1/2-y,1/2+z'
  '1/2-x,1/2+y,1/2-z'
  '1/2-x,1/2+y,z'
  '1/2+x,1/2-y,-z'
  '-x,-y,-z'
loop_
_atom_site_label
_atom_site_fract_x
_atom_site_fract_y
_atom_site_fract_z
_atom_site_occupancy
Mg1   0.00000   0.00000   0.00000   0.46400
Ni1   0.00000   0.00000   0.00000   0.53600
Mg2   0.99030   0.27610   0.25000   0.93600
Ni2   0.99030   0.27610   0.25000   0.06400
Si   0.42570   0.09370   0.25000   1.00000
O1   0.76620   0.09260   0.25000   1.00000
O2   0.21930   0.44610   0.25000   1.00000
O3   0.27610   0.16280   0.03210   1.00000
loop_
_atom_site_aniso_label
_atom_site_aniso_U_11
_atom_site_aniso_U_22
_atom_site_aniso_U_33
_atom_site_aniso_U_12
_atom_site_aniso_U_13
_atom_site_aniso_U_23
Mg1 0.05714 0.08221 0.05644 -0.00123 -0.00573 -0.00769
Ni1 0.05714 0.08221 0.05644 -0.00123 -0.00573 -0.00769
Mg2 0.06763 0.06219 0.06849 0.00221 0.00000 0.00000
Ni2 0.06763 0.06219 0.06849 0.00221 0.00000 0.00000
Si 0.04722 0.05797 0.05483 0.00319 0.00000 0.00000
O1 0.05394 0.07747 0.06939 0.00466 0.00000 0.00000
O2 0.07162 0.05797 0.07478 0.00123 0.00000 0.00000
O3 0.07174 0.07852 0.06363 0.00123 -0.00358 0.01508

